ITEM: TIMESTEP
0
ITEM: NUMBER OF ATOMS
1528
ITEM: BOX BOUNDS pp pp pp
-2.0000000000000000e+01 2.0000000000000000e+01
-2.0000000000000000e+01 2.0000000000000000e+01
-2.0000000000000000e+01 2.0000000000000000e+01
ITEM: ATOMS id type xs ys zs
41 1 0.00262612 0.137224 0.327736
44 1 0.0834251 0.125382 0.291614
45 1 0.159345 0.110564 0.249641
89 1 0.117514 0.049398 0.232325
113 1 0.297145 0.115684 0.301659
138 1 0.0695571 0.0466666 0.326138
151 1 0.208788 0.0985488 0.309897
156 1 0.289657 0.267103 0.197596
191 1 0.19654 0.245213 0.296515
284 1 0.125606 0.0615997 0.306507
312 1 0.264477 0.0661168 0.225208
368 1 0.0685012 0.300241 0.155381
392 1 0.320351 0.146733 0.137281
395 1 0.274834 0.134423 0.239587
398 1 0.270186 0.0114324 0.144511
443 1 0.105145 0.178268 0.146404
457 1 0.0227331 0.0759905 0.171629
519 1 0.0409961 0.0208396 0.250756
523 1 0.194043 0.277333 0.139047
529 1 0.0408218 0.0926583 0.308087
540 1 0.141023 0.178622 0.0985218
563 1 0.0812931 0.293587 0.311571
575 1 0.299475 0.269953 0.0981382
584 1 0.0191759 0.289182 0.277335
630 1 0.145194 0.278997 0.0954174
663 1 0.0720076 0.231706 0.284809
669 1 0.0657611 0.246386 0.0125555
693 1 0.259371 0.24806 0.15146
709 1 0.279008 0.282562 0.0116038
764 1 0.298396 0.149764 0.0772328
786 1 0.264667 0.251637 0.261889
788 1 0.180289 0.122214 0.0572922
819 1 0.235931 0.28423 0.0511448
831 1 0.198979 0.23205 0.0607007
835 1 0.0325534 0.124891 0.0405157
945 1 0.083667 0.191353 0.0663859
954 1 0.0368376 0.129719 0.179702
961 1 0.00703338 0.209982 0.170533
970 1 0.250266 0.227953 0.206824
986 1 0.249783 0.0981163 0.0409456
1074 1 0.0263 0.0233258 0.037495
1081 1 0.248954 0.16703 0.278833
1094 1 0.233553 0.317208 0.318443
1098 1 0.00780004 0.0953244 0.11647
1116 1 0.00578241 0.184926 0.0580291
1130 1 0.178336 0.301482 0.00509495
1165 1 0.0203665 0.300543 0.220905
1168 1 0.333207 0.218247 0.0707039
1202 1 0.215328 0.0236852 0.0771198
1205 1 0.142749 0.178333 0.245641
1227 1 0.149464 0.0371371 0.163522
1228 1 0.316481 0.0949141 0.221383
1233 1 0.150002 0.0764606 0.0726848
1277 1 0.0496231 0.0157175 0.16359
1339 1 0.0219107 0.252517 0.0541027
1373 1 0.16745 0.328271 0.243064
1395 1 0.124472 0.0013696 0.018792
1441 1 0.178635 0.320227 0.0586574
1459 1 0.317438 0.174691 0.025542
1469 1 0.101928 0.100678 0.0954934
1480 1 0.134895 0.180581 0.0329715
1492 1 0.228775 0.024232 0.266999
1500 1 0.277338 0.21951 0.30697
12 1 0.461659 0.0968729 0.142176
13 1 0.553942 0.0975873 0.149666
14 1 0.432333 0.229085 0.234817
35 1 0.469287 0.303046 0.294926
59 1 0.566919 0.203801 0.27725
76 1 0.399667 0.204977 0.0507907
77 1 0.639916 0.0643187 0.00513091
104 1 0.659312 0.0598655 0.158948
123 1 0.377477 0.252052 0.242658
146 1 0.648371 0.164058 0.327837
179 1 0.354154 0.264255 0.329245
211 1 0.334268 0.0452288 0.159914
220 1 0.44869 0.129186 0.233442
241 1 0.440118 0.0632045 0.277608
245 1 0.482849 0.248594 0.124377
256 1 0.339981 0.063087 0.302975
278 1 0.479683 0.0322026 0.228598
309 1 0.489321 0.0198812 0.143955
383 1 0.364322 0.16321 0.064013
414 1 0.515986 0.174573 0.0415887
426 1 0.477365 0.0701494 0.000196101
429 1 0.616959 0.225026 0.0196115
439 1 0.638616 0.222652 0.108275
452 1 0.368434 0.269831 0.0502591
496 1 0.557939 0.278468 0.210837
497 1 0.399775 0.0160694 0.0788072
527 1 0.536627 0.0837902 0.262108
622 1 0.402875 0.112351 0.286347
739 1 0.44507 0.285786 0.211598
752 1 0.531388 0.0426615 0.0111762
838 1 0.620758 0.0813515 0.275295
844 1 0.614465 0.317785 0.0169266
845 1 0.485173 0.300831 0.0627116
887 1 0.436544 0.000484925 0.150131
893 1 0.648191 0.149106 0.0257107
913 1 0.433345 0.223013 0.178782
922 1 0.366351 0.267396 0.129626
935 1 0.383907 0.326597 0.110648
972 1 0.479396 0.204444 0.0916797
973 1 0.588817 0.244787 0.128014
981 1 0.44518 0.135424 0.063221
992 1 0.376158 0.0902711 0.187191
1026 1 0.63206 0.029337 0.0672036
1050 1 0.643201 0.272866 0.0556546
1051 1 0.386515 0.155305 0.218775
1063 1 0.419724 0.308036 0.158127
1128 1 0.52497 0.167384 0.226811
1154 1 0.544957 0.0998998 0.0164016
1175 1 0.475581 0.0920637 0.314181
1197 1 0.623029 0.252409 0.242525
1238 1 0.630519 0.137211 0.103472
1274 1 0.639396 0.329465 0.31054
1324 1 0.493546 0.0275512 0.0535549
1361 1 0.341826 0.0642043 0.082505
1370 1 0.406736 0.00620239 0.243529
1387 1 0.485521 0.148874 0.123381
1411 1 0.600405 0.00209162 0.153812
1463 1 0.487433 0.280612 0.246399
1482 1 0.618445 0.213442 0.314947
1502 1 0.401629 0.181955 0.123391
1509 1 0.543127 0.331367 0.27686
57 1 0.741079 0.311195 0.251974
101 1 0.670564 0.175352 0.144794
103 1 0.973601 0.30864 0.313718
237 1 0.890644 0.060585 0.252786
251 1 0.950626 0.17607 0.212664
281 1 0.775467 0.266455 0.312095
300 1 0.836634 0.307086 0.195269
315 1 0.970205 0.227352 0.112021
316 1 0.732912 0.0446375 0.221873
332 1 0.848055 0.253715 0.186749
364 1 0.843818 0.0460655 0.223587
373 1 0.792483 0.256623 0.0665103
384 1 0.86708 0.0196361 0.0234972
387 1 0.873394 0.13888 0.148186
434 1 0.969079 0.313155 0.187895
502 1 0.912073 0.207965 0.274269
504 1 0.973185 0.321297 0.0341528
541 1 0.856195 0.0678377 0.148855
588 1 0.924556 0.0147602 0.0751813
624 1 0.718097 0.0602825 0.168025
662 1 0.903738 0.119188 0.191613
713 1 0.803137 0.320939 0.0171775
766 1 0.897677 0.259602 0.138877
777 1 0.745649 0.116271 0.172754
803 1 0.682767 0.261743 0.112627
840 1 0.821565 0.0497448 0.0606147
882 1 0.936396 0.0143487 0.159042
898 1 0.686451 0.186473 0.0529702
908 1 0.764388 0.0650935 0.0270511
926 1 0.78277 0.0134619 0.253792
933 1 0.918907 0.0736069 0.111786
974 1 0.930341 0.245854 0.0746226
984 1 0.819556 0.278641 0.111728
1045 1 0.885001 0.205044 0.181255
1088 1 0.744525 0.236095 0.0433929
1091 1 0.732024 0.130497 0.261267
1110 1 0.949498 0.209099 0.329232
1137 1 0.740656 0.204992 0.30802
1138 1 0.696033 0.227122 0.238273
1142 1 0.842275 0.11354 0.261792
1193 1 0.989591 0.0502338 0.279156
1196 1 0.704841 0.264008 0.179367
1219 1 0.803902 0.186183 0.174074
1263 1 0.951576 0.143037 0.0311439
1313 1 0.758334 0.311485 0.127504
1333 1 0.884399 0.102102 0.0236078
1384 1 0.893743 0.146325 0.278925
1468 1 0.747318 0.172788 0.0433345
1487 1 0.669427 0.0596331 0.254161
1507 1 0.828838 0.288351 0.307594
9 1 0.12617 0.531389 0.0570933
116 1 0.203874 0.514685 0.306335
132 1 0.330181 0.347598 0.075401
148 1 0.322283 0.617603 0.0557354
153 1 0.321146 0.505343 0.304805
159 1 0.0886803 0.450068 0.288149
161 1 0.0955856 0.506828 0.256256
223 1 0.00919164 0.483967 0.0356059
242 1 0.0466138 0.438933 0.149157
250 1 0.177936 0.575547 0.219191
264 1 0.233628 0.581026 0.303548
273 1 0.162814 0.410378 0.227264
413 1 0.32269 0.455713 0.172756
460 1 0.214533 0.659142 0.203953
505 1 0.00568307 0.515335 0.233222
558 1 0.0253704 0.400922 0.301676
560 1 0.322745 0.368307 0.136543
595 1 0.0827392 0.598502 0.0172544
656 1 0.117133 0.656397 0.0639295
673 1 0.0787482 0.521219 0.121785
685 1 0.212208 0.574771 0.17146
740 1 0.3274 0.61547 0.210166
750 1 0.0451859 0.439951 0.255612
800 1 0.139611 0.434302 0.313066
808 1 0.0570294 0.493009 0.00564146
869 1 0.304845 0.521929 0.0642296
885 1 0.0864151 0.377998 0.010863
968 1 0.0974989 0.664315 0.138597
991 1 0.0701831 0.568171 0.256233
1003 1 0.127769 0.411915 0.0596277
1068 1 0.0468497 0.402277 0.0689124
1082 1 0.143302 0.477672 0.234739
1083 1 0.0795858 0.597985 0.328286
1107 1 0.0400796 0.617136 0.206889
1109 1 0.0832593 0.338326 0.238341
1129 1 0.00937416 0.551505 0.140131
1152 1 0.255098 0.430721 0.131526
1166 1 0.176156 0.658366 0.160244
1192 1 0.277643 0.344678 0.0113756
1213 1 0.212151 0.625456 0.0323715
1235 1 0.140449 0.525148 0.156048
1253 1 0.0742933 0.648019 0.251706
1257 1 0.0100182 0.375569 0.189578
1260 1 0.200952 0.395389 0.311112
1283 1 0.195779 0.45691 0.287613
1293 1 0.285928 0.595424 0.290753
1303 1 0.151461 0.609459 0.184128
1309 1 0.234822 0.653307 0.137261
1327 1 0.268488 0.47595 0.292833
1332 1 0.238435 0.375093 0.193415
1366 1 0.236238 0.458094 0.183668
1496 1 0.213267 0.37134 0.104826
16 1 0.583709 0.39753 0.286779
51 1 0.520472 0.57055 0.241302
55 1 0.41427 0.631175 0.159251
84 1 0.518625 0.53621 0.0838621
85 1 0.46978 0.58815 0.0389832
107 1 0.427763 0.412034 0.0612216
131 1 0.44549 0.355995 0.213264
166 1 0.388441 0.530444 0.167004
195 1 0.590201 0.516519 0.135671
197 1 0.492798 0.460406 0.0394707
202 1 0.568785 0.568703 0.196248
235 1 0.369989 0.402641 0.19559
240 1 0.351069 0.410489 0.0831463
266 1 0.603283 0.376817 0.170023
276 1 0.459842 0.565494 0.260691
285 1 0.461081 0.394139 0.300863
304 1 0.625419 0.418221 0.0350459
322 1 0.338637 0.473618 0.102
354 1 0.664991 0.5051 0.208202
361 1 0.650887 0.455066 0.285964
370 1 0.413366 0.440725 0.257035
444 1 0.606018 0.352597 0.0918742
456 1 0.64209 0.599407 0.233892
465 1 0.392008 0.480824 0.201071
467 1 0.531182 0.580651 0.00751546
521 1 0.392492 0.617367 0.0948334
534 1 0.665523 0.446429 0.132719
576 1 0.40891 0.553343 0.0404837
583 1 0.607929 0.465591 0.18189
672 1 0.63453 0.543053 0.0868251
687 1 0.337091 0.489321 0.0177368
746 1 0.591516 0.60791 0.140272
813 1 0.45371 0.496476 0.27894
870 1 0.506898 0.430306 0.146296
934 1 0.6582 0.362411 0.0423266
939 1 0.519269 0.356471 0.205944
957 1 0.58467 0.540504 0.258577
988 1 0.386007 0.62742 0.0409917
998 1 0.643031 0.417337 0.178273
1011 1 0.537715 0.376637 0.138158
1018 1 0.347376 0.340587 0.248371
1028 1 0.599249 0.574226 0.0100373
1042 1 0.354518 0.386941 0.313976
1073 1 0.367438 0.531818 0.260429
1111 1 0.406763 0.461595 0.0328075
1174 1 0.408436 0.58894 0.320371
1230 1 0.521486 0.62147 0.0434404
1244 1 0.515003 0.652724 0.325467
1273 1 0.544501 0.428587 0.254917
1331 1 0.657914 0.565778 0.0311917
1406 1 0.522364 0.377643 0.0453304
1425 1 0.584073 0.506825 0.210355
1440 1 0.460497 0.57239 0.164406
1450 1 0.511074 0.626655 0.191087
1499 1 0.60537 0.454057 0.328835
21 1 0.790774 0.543005 0.283237
28 1 0.672775 0.337607 0.154207
108 1 0.951839 0.564772 0.119151
133 1 0.963565 0.640631 0.0831488
160 1 0.91311 0.640639 0.226637
172 1 0.984135 0.351467 0.10601
243 1 0.874895 0.364614 0.0638707
346 1 0.907755 0.639796 0.045092
349 1 0.726032 0.426326 0.263733
374 1 0.838083 0.660681 0.0659944
378 1 0.72914 0.659014 0.0433819
382 1 0.967609 0.601002 0.0449434
406 1 0.761088 0.614039 0.146624
459 1 0.768937 0.520441 0.0502299
474 1 0.784346 0.50951 0.330947
485 1 0.931373 0.58667 0.167971
518 1 0.726394 0.509153 0.326509
547 1 0.769293 0.500515 0.153386
573 1 0.72735 0.575851 0.331024
587 1 0.854435 0.485461 0.144946
647 1 0.744182 0.460172 0.103441
671 1 0.737274 0.372122 0.247256
710 1 0.706579 0.47302 0.0415543
712 1 0.830524 0.609406 0.286952
728 1 0.950947 0.568947 0.29865
743 1 0.812839 0.380446 0.164159
772 1 0.887812 0.452436 0.0998481
779 1 0.795536 0.578807 0.00296232
804 1 0.922977 0.480942 0.196662
807 1 0.840864 0.402036 0.0142818
871 1 0.793517 0.647778 0.210912
895 1 0.674934 0.620099 0.000856204
910 1 0.872881 0.509493 0.0568279
919 1 0.668673 0.381705 0.322685
947 1 0.756495 0.406147 0.107426
960 1 0.942963 0.371634 0.0483126
1076 1 0.711225 0.566019 0.0838265
1085 1 0.697719 0.569536 0.184255
1101 1 0.670592 0.639205 0.126421
1151 1 0.857354 0.541457 0.262539
1169 1 0.921847 0.483151 0.317421
1190 1 0.79112 0.346837 0.286941
1207 1 0.729181 0.337787 0.18421
1208 1 0.787436 0.432093 0.188816
1243 1 0.918226 0.620224 0.108795
1318 1 0.931479 0.367655 0.170117
1326 1 0.886391 0.574826 0.0943219
1336 1 0.966005 0.650039 0.202316
1340 1 0.810881 0.481889 0.100196
1385 1 0.884475 0.364206 0.201937
1437 1 0.948435 0.352072 0.266453
1475 1 0.827964 0.590233 0.0530167
1486 1 0.779941 0.461178 0.0175867
1493 1 0.800772 0.573165 0.184073
1498 1 0.728654 0.494334 0.271271
1524 1 0.674629 0.489444 0.0884611
26 1 0.0786398 0.6987 0.0485978
30 1 0.275706 0.790684 0.0300738
42 1 0.261601 0.727439 0.0720495
53 1 0.314674 0.733446 0.0252788
70 1 0.0932276 0.876254 0.201529
73 1 0.030639 0.950452 0.247325
78 1 0.235241 0.695545 0.0228721
96 1 0.137735 0.913138 0.110589
119 1 0.260365 0.960388 0.23427
121 1 0.166757 0.682586 0.22508
194 1 0.189847 0.764994 0.256059
201 1 0.163441 0.956098 0.135275
205 1 0.135939 0.722684 0.146694
258 1 0.170047 0.983297 0.264597
317 1 0.0233678 0.741774 0.000847816
324 1 0.139691 0.790267 0.024088
337 1 0.0754941 0.829728 0.246773
340 1 0.229124 0.879413 0.290132
400 1 0.0949565 0.934092 0.2798
476 1 0.262142 0.822346 0.162584
479 1 0.323122 0.704543 0.261361
494 1 0.226569 0.939138 0.0886385
506 1 0.0878625 0.705852 0.253803
511 1 0.268209 0.780582 0.249139
542 1 0.301651 0.854645 0.0134005
579 1 0.274525 0.937604 0.306731
581 1 0.050033 0.904214 0.120891
601 1 0.322655 0.863695 0.12831
617 1 0.238751 0.693776 0.30117
637 1 0.271016 0.970552 0.0749807
641 1 0.103513 0.745349 0.0752443
670 1 0.019616 0.685789 0.0624553
715 1 0.31558 0.957354 0.251539
718 1 0.10394 0.91921 0.163377
719 1 0.261659 0.6996 0.169942
730 1 0.104411 0.838345 0.0689226
763 1 0.199552 0.876015 0.184762
828 1 0.0190296 0.831091 0.15191
843 1 0.220427 0.719893 0.239044
872 1 0.246382 0.937 0.153809
900 1 0.241922 0.983877 0.0198377
996 1 0.116975 0.991205 0.185555
1001 1 0.0399117 0.795503 0.0196673
1014 1 0.28089 0.912715 0.00931761
1114 1 0.0959065 0.900996 0.0459782
1117 1 0.294627 0.803076 0.299238
1158 1 0.0729338 0.797893 0.184696
1173 1 0.0285511 0.858351 0.298253
1183 1 0.308602 0.670977 0.118461
1282 1 0.0415128 0.705073 0.158934
1344 1 0.170633 0.822412 0.283406
1351 1 0.1764 0.752316 0.182608
1352 1 0.100359 0.727387 0.188546
1363 1 0.288213 0.989964 0.319523
1375 1 0.201925 0.760821 0.113
1401 1 0.321225 0.831154 0.20073
1405 1 0.0280099 0.761895 0.163237
1433 1 0.0333116 0.867746 0.209481
1464 1 0.146836 0.876496 0.274724
32 1 0.342161 0.698885 0.159994
65 1 0.503352 0.845441 0.321549
81 1 0.408569 0.815926 0.266449
94 1 0.40429 0.893737 0.0347676
136 1 0.416899 0.820492 0.00250511
155 1 0.650552 0.823124 0.2467
180 1 0.614428 0.685266 0.264427
214 1 0.50602 0.682288 0.206781
215 1 0.368768 0.880532 0.0959656
217 1 0.586235 0.844063 0.163831
229 1 0.333964 0.928435 0.200942
267 1 0.576177 0.800396 0.250969
334 1 0.55493 0.707819 0.322029
348 1 0.608969 0.945395 0.254818
350 1 0.558217 0.95218 0.289471
394 1 0.346266 0.684957 0.0696897
409 1 0.434874 0.919394 0.250895
417 1 0.625264 0.816149 0.00893305
418 1 0.497764 0.920275 0.0676598
436 1 0.445871 0.747564 0.310245
453 1 0.402433 0.699833 0.0849027
498 1 0.51192 0.832697 0.138773
707 1 0.586819 0.674077 0.204193
736 1 0.47611 0.975447 0.332916
785 1 0.644659 0.775991 0.0873603
796 1 0.347348 0.870723 0.245722
825 1 0.566419 0.81218 0.303896
858 1 0.572012 0.811336 0.116034
892 1 0.428619 0.791642 0.122435
932 1 0.6311 0.890057 0.181242
938 1 0.625632 0.998346 0.207005
962 1 0.563687 0.894159 0.130921
985 1 0.555047 0.67115 0.0231005
1016 1 0.585169 0.938966 0.195958
1020 1 0.346282 0.96889 0.129106
1022 1 0.362704 0.966342 0.304082
1056 1 0.476688 0.688472 0.14642
1064 1 0.539703 0.786046 0.068166
1119 1 0.589331 0.892964 0.0416015
1135 1 0.341985 0.742255 0.0774652
1160 1 0.340688 0.940502 0.0233284
1185 1 0.395235 0.710675 0.319649
1198 1 0.666615 0.792597 0.175719
1203 1 0.441286 0.685501 0.214653
1221 1 0.35615 0.805859 0.0640322
1232 1 0.386922 0.989886 0.0122536
1246 1 0.555227 0.700667 0.117051
1250 1 0.500023 0.885296 0.171079
1259 1 0.498705 0.74042 0.237235
1285 1 0.504118 0.703641 0.0944368
1302 1 0.480211 0.901725 0.29391
1325 1 0.470626 0.805634 0.294915
1345 1 0.657457 0.8772 0.0973466
1362 1 0.662206 0.692094 0.0314638
1479 1 0.583382 0.903333 0.312587
1508 1 0.353053 0.757372 0.157765
1522 1 0.483837 0.841984 0.22742
2 1 0.949422 0.930865 0.0515216
29 1 0.764502 0.979016 0.330066
58 1 0.695954 0.891842 0.181625
63 1 0.719154 0.818361 0.198548
97 1 0.676202 0.928367 0.0712995
111 1 0.875928 0.722155 0.253473
154 1 0.857259 0.954496 0.2137
177 1 0.86629 0.731369 0.117614
216 1 0.893779 0.745942 0.0465631
232 1 0.739854 0.720831 0.0112991
233 1 0.904314 0.811051 0.326938
294 1 0.992919 0.985678 0.296366
353 1 0.83358 0.973703 0.0282421
380 1 0.740446 0.667896 0.33082
403 1 0.958044 0.837634 0.111937
435 1 0.949419 0.887265 0.254504
447 1 0.83946 0.799623 0.272
480 1 0.699035 0.678661 0.253483
488 1 0.779902 0.809977 0.284386
507 1 0.67138 0.880663 0.304794
513 1 0.981256 0.976154 0.224465
537 1 0.67804 0.82008 0.0840886
608 1 0.905568 0.874291 0.21231
620 1 0.982259 0.822054 0.262705
631 1 0.680014 0.991019 0.0576919
658 1 0.723135 0.729999 0.0967319
679 1 0.86695 0.834475 0.0153587
756 1 0.880866 0.713115 0.326623
771 1 0.729516 0.97336 0.257007
776 1 0.73826 0.938307 0.124948
802 1 0.76206 0.940275 0.207269
817 1 0.892712 0.81681 0.126142
839 1 0.885565 0.686511 0.186221
956 1 0.836126 0.771108 0.00741267
959 1 0.844221 0.820086 0.177661
1015 1 0.838751 0.894276 0.0932813
1078 1 0.809824 0.703696 0.0175571
1090 1 0.935846 0.76351 0.309617
1145 1 0.931448 0.853039 0.0343952
1155 1 0.916992 0.87619 0.12365
1186 1 0.684341 0.711678 0.169133
1254 1 0.801202 0.794564 0.23273
1275 1 0.752766 0.736675 0.294239
1279 1 0.908055 0.675321 0.115672
1281 1 0.816903 0.684842 0.132507
1288 1 0.779307 0.810327 0.162467
1294 1 0.684952 0.995198 0.298166
1322 1 0.968403 0.947114 0.146619
1341 1 0.996892 0.758868 0.291078
1342 1 0.858205 0.843403 0.074281
1391 1 0.773421 0.885763 0.0164274
1415 1 0.723207 0.940519 0.3095
1418 1 0.832328 0.930819 0.272657
1436 1 0.800023 0.988105 0.0799913
1442 1 0.93193 0.945756 0.316544
1460 1 0.92503 0.971932 0.254378
1462 1 0.848275 0.964784 0.117442
1476 1 0.766875 0.874106 0.098957
1478 1 0.725938 0.83193 0.253995
1491 1 0.977788 0.687696 0.108174
20 1 0.211121 0.307516 0.423978
24 1 0.0465293 0.0175784 0.439914
66 1 0.2806 0.0418494 0.362262
71 1 0.0950941 0.2473 0.377691
118 1 0.288166 0.19799 0.616128
196 1 0.230559 0.0078196 0.424079
199 1 0.0709345 0.195416 0.348992
225 1 0.18875 0.324425 0.604259
295 1 0.0290476 0.203812 0.461733
318 1 0.249251 0.167814 0.453171
405 1 0.0181044 0.280628 0.511439
450 1 0.283587 0.242076 0.567557
461 1 0.0623072 0.197751 0.608706
545 1 0.208907 0.0928564 0.637534
546 1 0.0375506 0.112954 0.422489
556 1 0.216889 0.255155 0.387808
732 1 0.312971 0.10213 0.493386
757 1 0.303514 0.154127 0.408027
770 1 0.228371 0.235404 0.44343
795 1 0.101934 0.206138 0.567189
829 1 0.155128 0.237962 0.41919
856 1 0.26954 0.165368 0.342342
883 1 0.177253 0.0921894 0.426472
888 1 0.243363 0.203164 0.570581
937 1 0.12055 0.077623 0.609455
940 1 0.296322 0.282889 0.522628
953 1 0.179583 0.243445 0.580902
1040 1 0.150663 0.1959 0.489794
1054 1 0.256813 0.262471 0.346174
1103 1 0.203146 0.28135 0.641991
1141 1 0.0379127 0.198215 0.393517
1143 1 0.11925 0.240237 0.663768
1200 1 0.0530766 0.0587563 0.517921
1204 1 0.161193 0.173283 0.363102
1217 1 0.0927703 0.190783 0.488186
1269 1 0.140537 0.00175653 0.522074
1280 1 0.312967 0.0281079 0.408985
1296 1 0.266859 0.101956 0.569681
1312 1 0.0514838 0.288966 0.643551
1328 1 0.207483 0.172881 0.617961
1330 1 0.288638 0.14105 0.632692
1347 1 0.323617 0.0291941 0.665862
1353 1 0.0489136 0.0911873 0.585753
1364 1 0.229734 0.143187 0.549325
1380 1 0.145181 0.0557807 0.506162
1383 1 0.150182 0.111292 0.480793
1390 1 0.244256 0.216488 0.509576
1422 1 0.129428 0.300564 0.576191
1429 1 0.301559 0.306918 0.363493
1454 1 0.16999 0.0271568 0.424557
10 1 0.566858 0.174015 0.666624
22 1 0.363854 0.297176 0.64236
88 1 0.586792 0.210176 0.433338
91 1 0.410324 0.312932 0.456165
134 1 0.481778 0.238851 0.364738
139 1 0.404358 0.0498246 0.402219
192 1 0.522944 0.114617 0.364466
206 1 0.477675 0.284969 0.469965
218 1 0.51544 0.0078202 0.434159
227 1 0.406141 0.0126489 0.589547
230 1 0.535564 0.223507 0.479609
260 1 0.383234 0.0168592 0.35222
286 1 0.611356 0.0551853 0.499851
292 1 0.409422 0.163414 0.49658
310 1 0.458866 0.168358 0.599223
345 1 0.522833 0.257372 0.658113
369 1 0.490991 0.0786359 0.634344
404 1 0.575714 0.0320433 0.552449
462 1 0.519787 0.0556055 0.562069
466 1 0.39235 0.230059 0.597165
469 1 0.350586 0.296571 0.465129
477 1 0.546977 0.0450625 0.365697
499 1 0.36159 0.243138 0.428138
535 1 0.61119 0.274085 0.546835
552 1 0.575067 0.157397 0.374278
586 1 0.454285 0.166026 0.400031
634 1 0.407693 0.104394 0.556103
639 1 0.35135 0.1448 0.658874
716 1 0.356229 0.147948 0.558556
717 1 0.656515 0.0532751 0.39502
735 1 0.555313 0.151997 0.616022
742 1 0.56133 0.271584 0.507813
775 1 0.60244 0.206972 0.584607
823 1 0.660215 0.238138 0.388366
841 1 0.639257 3.1821e-05 0.534815
912 1 0.43495 0.210776 0.51209
928 1 0.440175 0.0268653 0.525462
929 1 0.452495 0.0843975 0.469079
952 1 0.635106 0.222863 0.653956
1002 1 0.548764 0.0766649 0.507107
1017 1 0.354201 0.0535832 0.572868
1043 1 0.608804 0.167402 0.522303
1070 1 0.525086 0.115039 0.457693
1071 1 0.438645 0.306035 0.529299
1105 1 0.510574 0.209888 0.58682
1113 1 0.626655 0.184826 0.375172
1121 1 0.618558 0.108135 0.429616
1184 1 0.604039 0.0830375 0.610602
1223 1 0.506948 0.268972 0.604135
1239 1 0.543541 0.291936 0.565652
1252 1 0.46356 0.0496454 0.390593
1270 1 0.460712 0.183939 0.460585
1290 1 0.546986 0.191024 0.545446
1298 1 0.460244 0.32239 0.410084
1369 1 0.599817 0.130575 0.568561
1377 1 0.603685 0.133079 0.664856
1426 1 0.430493 0.30271 0.641165
1435 1 0.587629 0.287639 0.346703
1495 1 0.338554 0.0814324 0.634094
1519 1 0.383542 0.196147 0.640431
17 1 0.893567 0.17513 0.404572
46 1 0.7243 0.314424 0.522421
60 1 0.735114 0.060844 0.604623
61 1 0.892437 0.18043 0.482757
122 1 0.924676 0.0355444 0.395155
163 1 0.732094 0.297996 0.410814
171 1 0.859299 0.241006 0.583625
174 1 0.911352 0.0860151 0.655726
272 1 0.682289 0.237194 0.524613
306 1 0.953238 0.0790513 0.614401
371 1 0.983588 0.171386 0.489727
390 1 0.678713 0.124269 0.582225
438 1 0.882371 0.00365959 0.506732
441 1 0.712044 0.316793 0.346838
561 1 0.87458 0.0732055 0.365307
562 1 0.717092 0.164302 0.419479
569 1 0.989478 0.163061 0.572301
572 1 0.841379 0.0611307 0.423083
600 1 0.786762 0.106351 0.435612
612 1 0.798316 0.295446 0.554915
626 1 0.674381 0.323937 0.4161
677 1 0.786355 0.275746 0.463329
703 1 0.751718 0.125043 0.598807
708 1 0.867381 0.0773176 0.477556
714 1 0.701856 0.0987888 0.342598
723 1 0.975196 0.112061 0.405964
725 1 0.77236 0.0608312 0.390117
745 1 0.684835 0.0272812 0.515951
748 1 0.911958 0.275337 0.595941
768 1 0.807944 0.121173 0.558822
783 1 0.751311 0.280335 0.595431
794 1 0.799323 0.214232 0.604576
820 1 0.983104 0.0286439 0.418036
864 1 0.746662 0.14991 0.539456
865 1 0.66717 0.133376 0.657406
881 1 0.694722 0.199062 0.637454
897 1 0.87268 0.133847 0.572659
942 1 0.912966 0.224991 0.430638
977 1 0.977052 0.306333 0.538105
994 1 0.837042 0.161984 0.460846
1044 1 0.952356 0.242259 0.641755
1046 1 0.667404 0.0545361 0.588484
1052 1 0.953484 0.211194 0.541171
1057 1 0.877147 0.216191 0.527051
1122 1 0.860482 0.129203 0.517023
1226 1 0.815981 0.192215 0.55629
1236 1 0.75339 0.228682 0.45841
1240 1 0.915395 0.0497127 0.52108
1256 1 0.811516 0.15121 0.384496
1284 1 0.835965 0.0710181 0.602041
1321 1 0.949861 0.311797 0.366453
1396 1 0.837882 0.283955 0.429611
1470 1 0.779024 0.0484037 0.521423
1481 1 0.894754 0.126337 0.348702
112 1 0.115941 0.623279 0.445308
115 1 0.159134 0.572466 0.435604
137 1 0.103433 0.391958 0.640154
181 1 0.218638 0.655819 0.347351
185 1 0.156339 0.589793 0.651157
187 1 0.208516 0.523919 0.499661
259 1 0.0842244 0.559259 0.458046
268 1 0.038046 0.439123 0.345321
280 1 0.190249 0.518212 0.582692
297 1 0.281757 0.48637 0.41845
331 1 0.15188 0.645475 0.497198
359 1 0.279672 0.452113 0.66517
376 1 0.0791548 0.354993 0.366871
381 1 0.0894539 0.451921 0.437137
411 1 0.00235238 0.536524 0.365127
437 1 0.284263 0.609486 0.627946
482 1 0.169542 0.496546 0.449428
538 1 0.277168 0.354402 0.427335
543 1 0.32162 0.470732 0.598679
567 1 0.276039 0.383314 0.355027
607 1 0.316212 0.581095 0.459761
610 1 0.244573 0.536243 0.638008
615 1 0.174951 0.407354 0.398063
636 1 0.257965 0.619414 0.494512
638 1 0.201188 0.361496 0.663707
642 1 0.246834 0.547119 0.421328
643 1 0.183041 0.368152 0.532052
667 1 0.108319 0.524045 0.624896
680 1 0.13403 0.645824 0.366646
688 1 0.102601 0.423008 0.498222
697 1 0.0970039 0.345307 0.572842
724 1 0.114151 0.539498 0.341465
751 1 0.322285 0.650466 0.382908
773 1 0.146869 0.419138 0.447264
784 1 0.0228157 0.46341 0.533022
793 1 0.264257 0.36815 0.488772
830 1 0.32334 0.382726 0.470268
852 1 0.310557 0.53974 0.418064
859 1 0.232372 0.470021 0.643055
873 1 0.0579902 0.641728 0.526176
880 1 0.0639357 0.56777 0.510662
894 1 0.119987 0.619597 0.560164
906 1 0.251585 0.389163 0.660033
944 1 0.0519648 0.371907 0.635003
975 1 0.0215747 0.605439 0.620757
993 1 0.0138346 0.517369 0.417621
1004 1 0.162522 0.50362 0.347912
1006 1 0.169007 0.493873 0.531727
1013 1 0.0469135 0.475734 0.660396
1024 1 0.176748 0.603224 0.386109
1035 1 0.0051405 0.396464 0.373981
1058 1 0.145377 0.354932 0.339989
1102 1 0.198693 0.438422 0.560076
1146 1 0.0804118 0.480892 0.343775
1149 1 0.300145 0.53886 0.623925
1172 1 0.14175 0.396477 0.581121
1181 1 0.0080113 0.645882 0.338665
1231 1 0.184362 0.58021 0.58627
1247 1 0.269557 0.436333 0.443643
1271 1 0.237959 0.375832 0.603994
1276 1 0.273607 0.50643 0.565227
1311 1 0.0595287 0.49869 0.490626
1329 1 0.0675609 0.496603 0.399002
1368 1 0.277767 0.430617 0.383436
1471 1 0.141165 0.563489 0.5564
1513 1 0.241472 0.423009 0.51962
1517 1 0.128604 0.454417 0.393693
1527 1 0.275807 0.49155 0.479882
7 1 0.60454 0.498803 0.378033
105 1 0.433607 0.627216 0.622144
106 1 0.375475 0.612564 0.364754
190 1 0.382489 0.487272 0.587981
200 1 0.514688 0.364876 0.476597
244 1 0.475428 0.518495 0.348693
248 1 0.492747 0.594301 0.410146
288 1 0.534985 0.493272 0.414509
342 1 0.385707 0.580867 0.633668
363 1 0.44324 0.540278 0.456229
388 1 0.364334 0.358861 0.377179
412 1 0.654288 0.617043 0.642257
468 1 0.540405 0.593947 0.469885
491 1 0.615122 0.358037 0.534695
503 1 0.643979 0.360778 0.594162
516 1 0.555151 0.42925 0.408753
551 1 0.362733 0.45275 0.377615
605 1 0.630473 0.357853 0.43899
629 1 0.625666 0.569069 0.33713
648 1 0.531119 0.513565 0.487791
811 1 0.548671 0.508159 0.624372
815 1 0.393728 0.383441 0.49039
863 1 0.502328 0.626974 0.558443
867 1 0.638935 0.577532 0.5783
902 1 0.368444 0.446331 0.490457
914 1 0.554208 0.57175 0.409316
915 1 0.371715 0.419203 0.543567
980 1 0.360476 0.523621 0.506492
1019 1 0.369692 0.408737 0.642967
1025 1 0.576271 0.388139 0.453588
1029 1 0.533252 0.369152 0.34271
1053 1 0.387196 0.610426 0.423155
1059 1 0.405454 0.462094 0.413378
1060 1 0.638035 0.456212 0.549366
1066 1 0.464594 0.433248 0.601029
1069 1 0.378017 0.335548 0.551098
1084 1 0.506539 0.397372 0.636919
1086 1 0.625491 0.630126 0.530002
1097 1 0.501255 0.600858 0.621751
1163 1 0.46073 0.490599 0.505738
1176 1 0.447763 0.547425 0.573357
1209 1 0.430142 0.394505 0.449517
1210 1 0.543499 0.583289 0.345087
1264 1 0.435019 0.363451 0.529065
1297 1 0.628986 0.361972 0.656605
1300 1 0.539683 0.444432 0.575251
1304 1 0.565873 0.629524 0.411681
1308 1 0.521845 0.646138 0.648913
1320 1 0.497083 0.479595 0.550499
1335 1 0.557353 0.428364 0.512973
1388 1 0.617148 0.407651 0.387311
1392 1 0.565514 0.598234 0.525239
1402 1 0.665655 0.662794 0.582019
1424 1 0.611686 0.602751 0.430221
1443 1 0.481431 0.419076 0.418559
1444 1 0.375583 0.41997 0.438473
1461 1 0.348642 0.632154 0.617174
1501 1 0.595791 0.459904 0.609532
1511 1 0.564488 0.35013 0.628529
1514 1 0.58895 0.490422 0.528642
1521 1 0.468462 0.442812 0.344409
11 1 0.942425 0.335136 0.624291
43 1 0.936134 0.606506 0.550609
50 1 0.875566 0.645589 0.420927
74 1 0.799274 0.391298 0.53769
75 1 0.957911 0.603417 0.624942
147 1 0.958256 0.409917 0.483032
152 1 0.808392 0.638456 0.525098
170 1 0.742883 0.62799 0.630384
226 1 0.773992 0.48918 0.643209
247 1 0.985504 0.360828 0.440858
265 1 0.727518 0.392538 0.386363
269 1 0.802968 0.488513 0.439346
298 1 0.894831 0.429021 0.550463
302 1 0.924348 0.513039 0.648784
366 1 0.795063 0.626683 0.665639
385 1 0.852881 0.377186 0.370581
399 1 0.792915 0.527547 0.486291
422 1 0.809509 0.410816 0.589889
440 1 0.769771 0.539026 0.404814
449 1 0.796065 0.456437 0.341422
486 1 0.704021 0.485481 0.483359
495 1 0.747033 0.380177 0.642623
508 1 0.672189 0.48042 0.414646
509 1 0.950882 0.476261 0.518821
522 1 0.864674 0.584011 0.46573
557 1 0.887638 0.532731 0.612603
604 1 0.821423 0.661309 0.621505
609 1 0.95046 0.378018 0.348798
614 1 0.995799 0.400467 0.654514
618 1 0.771492 0.470428 0.490118
635 1 0.943324 0.446086 0.365656
664 1 0.782374 0.361001 0.344644
668 1 0.857291 0.495071 0.660265
676 1 0.985045 0.645359 0.543172
696 1 0.956175 0.438006 0.559773
801 1 0.692057 0.395047 0.553244
832 1 0.784409 0.56992 0.648938
857 1 0.735626 0.663323 0.469065
862 1 0.954161 0.58222 0.372018
951 1 0.800708 0.495004 0.538378
965 1 0.897217 0.527604 0.433384
987 1 0.85193 0.382255 0.567584
990 1 0.975101 0.528082 0.473021
1008 1 0.88769 0.400942 0.625593
1021 1 0.880318 0.502559 0.502193
1031 1 0.730498 0.486021 0.547766
1034 1 0.792562 0.593406 0.378414
1077 1 0.872816 0.411822 0.487427
1127 1 0.992172 0.433833 0.438658
1187 1 0.908993 0.452099 0.434363
1211 1 0.920965 0.666292 0.371521
1265 1 0.999316 0.499769 0.611809
1267 1 0.735206 0.602936 0.547323
1301 1 0.946295 0.387244 0.407087
1356 1 0.68665 0.520412 0.572266
1381 1 0.864132 0.459654 0.398499
1465 1 0.77821 0.368388 0.491553
1523 1 0.795359 0.604121 0.462756
4 1 0.10589 0.695043 0.583283
33 1 0.0255786 0.899724 0.664478
47 1 0.329142 0.883462 0.341125
68 1 0.159203 0.716634 0.471004
126 1 0.257864 0.913821 0.59588
140 1 0.090671 0.907749 0.543234
209 1 0.0116483 0.77251 0.581525
212 1 0.0788259 0.827001 0.41251
262 1 0.1375 0.957722 0.438613
270 1 0.0909113 0.946845 0.617241
279 1 0.0493821 0.964499 0.337549
287 1 4.24334e-05 0.713178 0.380945
311 1 0.142969 0.883297 0.576859
313 1 0.069665 0.860216 0.65702
341 1 0.314034 0.97546 0.549377
351 1 0.14428 0.910136 0.657783
355 1 0.0988697 0.702469 0.400967
362 1 0.191167 0.947186 0.362078
407 1 0.309331 0.929341 0.440652
421 1 0.194374 0.848072 0.552807
427 1 0.295872 0.719494 0.535704
539 1 0.224892 0.753463 0.44994
599 1 0.239056 0.808919 0.505669
602 1 0.0324796 0.883879 0.356525
633 1 0.242682 0.751495 0.374365
661 1 0.045093 0.87823 0.416139
744 1 0.0158206 0.896865 0.610203